56
Lattice="20.0 0.0 0.0 0.0 20.0 0.0 0.0 0.0 20.0" Properties=species:S:1:pos:R:3:forces:R:3 energy=-54013.997992 stress="-2.4790257266472257e-05 2.0199468883792206e-06 2.6626572619544276e-06 2.0199468883792206e-06 -3.681812282909398e-05 -3.672630706144038e-07 2.6626572619544276e-06 -3.672630706144038e-07 -2.0842179257367415e-05" dipole="-0.11914983369976906 0.22557649438907637 0.0" pbc="T T T"
Pd       7.53485080       7.54124571       7.47542400      -0.00074976       0.00058894       0.00239146
Au       7.60632565       7.48390947      10.42762887       0.00255475      -0.00076159       0.00316032
Ag      10.09561589       7.53730273       8.68742861       0.00677645       0.00167798       0.00566023
Au       8.32224468       9.89900668       8.75364084      -0.00096565      -0.00255987      -0.00131815
Ag       5.43340861       9.02685507       8.77439849      -0.00087256       0.00178507       0.00319992
Ag       5.50026267       6.10839575       8.74138069       0.00389679       0.00009708       0.00114867
Ag       8.34247090       5.16502205       8.70040877      -0.00240470       0.00155999      -0.00364732
Pd       9.51233986       6.08617586       6.22469533      -0.00081172      -0.00099605      -0.00102230
Pd       9.53075674       8.98544714       6.20812206       0.00067970       0.00422792      -0.00282292
Pt       6.72052967       9.85518227       6.21708604       0.00264435       0.00178921       0.00159092
Pt       5.01626674       7.49217217       6.23064079      -0.00059863      -0.00188611      -0.00073667
Ag       6.78505915       5.23962211       6.17852216      -0.00233932       0.00047691      -0.00190141
Cu       7.55766496       7.63648320       4.72483049       0.00084880       0.00101811       0.00282449
Au       7.57771766       7.02893500      13.30854270      -0.00147805      -0.00259699       0.00368249
Pt      12.54972407       7.56987741      10.07610326      -0.00452884      -0.00043827      -0.00290807
Cu       8.95894568      12.23570551       9.80300150       0.00349788       0.00245029       0.00076287
Ag       3.32552205      10.48588419       9.99898857       0.00103050       0.00067697      -0.00185184
Pt       3.64120696       4.40232039       9.98490124      -0.00077120      -0.00084988      -0.00150176
Pt       8.81801665       2.67874234       9.92575334      -0.00076801      -0.00329420       0.00112902
Pt      11.43221637       4.53437718       4.91327106       0.00016915      -0.00509703       0.00027339
Ag      11.61149944      10.39429427       4.83695918       0.00010395      -0.00037829       0.00082093
Cu       6.10538844      12.06902169       4.99720402       0.00020121       0.00115558       0.00191190
Au       2.44221435       7.41709615       4.91037007       0.00038572       0.00005505      -0.00008369
Cu       6.05548459       2.90773037       5.29187053      -0.00092627       0.00254807       0.00209064
Pt       7.34338366       7.51999405       1.97461221      -0.00226905       0.00044367       0.00042187
Cu      10.16372666       7.74026112      11.46147431       0.00190020       0.00004759      -0.00259329
Ag       8.36913533      10.06050198      11.74311029      -0.00018574       0.00151225       0.00186541
Au       5.38875946       8.98174117      11.78056923      -0.00167605      -0.00089973       0.00237256
Cu       5.56209803       5.78959610      11.43672302       0.00130005      -0.00254688       0.00199554
Cu       8.04803707       4.88380839      11.40692925      -0.00011153      -0.00198165      -0.00258177
Pt      10.90005994      10.07546718      10.09921207       0.00165060       0.00156128      -0.00164990
Au      10.80547934       5.07617796      10.33792385      -0.00261034      -0.00112056       0.00094293
Au      12.27619636       5.94896646       7.46652051       0.00131895       0.00147808       0.00253873
Pt      12.19407737       9.02628094       7.39119226       0.00043369      -0.00150736       0.00097239
Pt       6.24690128      11.55339053      10.00650102       0.00059493       0.00219819       0.00125945
Au      10.47697745      11.57926094       7.42258373      -0.00357936      -0.00016180      -0.00244234
Cu       7.50735696      12.17071539       7.38568723      -0.00245929      -0.00120245       0.00044624
Ag       3.26577984       7.39800223      10.08089358      -0.00133669      -0.00085129      -0.00353221
Au       4.54037531      11.56393083       7.41341240      -0.00069181       0.00149368       0.00293638
Pd       2.87886760       8.92372686       7.52739728      -0.00009246       0.00209848       0.00055821
Cu       6.25246536       3.65717408       9.83015513      -0.00304730       0.00062809      -0.00029254
Pd       2.91824992       5.91410991       7.52344536      -0.00090639       0.00183001       0.00223557
Cu       4.81588590       3.74439774       7.53057486      -0.00129542       0.00190843      -0.00143699
Ag      10.35348896       3.50143914       7.47888110       0.00286498       0.00110542       0.00142647
Cu       7.40915508       2.87206350       7.51948957       0.00036170      -0.00170631      -0.00057665
Cu      11.43134986       7.47150944       5.05165049      -0.00198620       0.00134273      -0.00203143
Cu       8.73983150       3.68322203       5.15895750      -0.00087497      -0.00015751       0.00529403
Ag       9.42534280       5.94631138       3.36209016       0.00303982       0.00246759      -0.00294312
Pd       8.77506689      11.44594011       4.92848302      -0.00207671      -0.00133849       0.00048015
Pt       9.58325054       8.91958843       3.36037629      -0.00360070       0.00091169      -0.00130404
Pt       4.10966271       9.98187469       4.83663127      -0.00173125      -0.00035327       0.00127185
Pd       6.75158132       9.97020386       3.38309239       0.00104189      -0.00122996      -0.00364037
Pd       4.15919777       4.89412735       5.14197253       0.00408327       0.00329554       0.00204099
Cu       5.16598273       7.69097174       3.60133381       0.00149746      -0.00533998      -0.00288748
Au       6.48600336       5.02343612       3.30426982       0.00587502      -0.00459562      -0.00357898
H        7.40991377       6.73507707      15.07982199      -0.00184096      -0.00010189      -0.00651209
